TITLE = 'Interpolated Value'
VARIABLES = 'X','Y','Z','Value'
ZONE I=151, J=151, K=03, F=POINT
126.8	0.0	20.56	24.158366432129405
126.87466666666667	0.0	20.56	24.348685643378644
126.94933333333334	0.0	20.56	24.30480862463481
127.02400000000002	0.0	20.56	24.030797353040306
127.09866666666669	0.0	20.56	23.653493174914328
127.17333333333336	0.0	20.56	23.300606115218937
127.24800000000003	0.0	20.56	23.00818888851377
127.3226666666667	0.0	20.56	22.772945180002946
127.39733333333338	0.0	20.56	22.59406486424666
127.47200000000005	0.0	20.56	22.486775444608956
127.54666666666672	0.0	20.56	22.48193937250246
127.6213333333334	0.0	20.56	22.607870943849033
127.69600000000007	0.0	20.56	22.85387973668989
127.77066666666674	0.0	20.56	23.149940796714997
127.84533333333341	0.0	20.56	23.402978549360714
127.92000000000009	0.0	20.56	23.553674188997505
127.99466666666676	0.0	20.56	23.58724429762722
128.06933333333342	0.0	20.56	23.5076026198498
128.1440000000001	0.0	20.56	23.322844213734413
128.21866666666676	0.0	20.56	23.05180804437806
128.29333333333344	0.0	20.56	22.731587242774335
128.3680000000001	0.0	20.56	22.416905881482688
128.44266666666678	0.0	20.56	22.17254058775865
128.51733333333345	0.0	20.56	22.05463897000326
128.59200000000013	0.0	20.56	22.08174339426883
128.6666666666668	0.0	20.56	22.2174531629246
128.74133333333347	0.0	20.56	22.389678093226134
128.81600000000014	0.0	20.56	22.534242847060874
128.89066666666682	0.0	20.56	22.621925644129075
128.9653333333335	0.0	20.56	22.651199696538484
129.04000000000016	0.0	20.56	22.62510384994831
129.11466666666684	0.0	20.56	22.53807063439384
129.1893333333335	0.0	20.56	22.38372411848747
129.26400000000018	0.0	20.56	22.175471922667466
129.33866666666685	0.0	20.56	21.96004044119164
129.41333333333353	0.0	20.56	21.805774536420227
129.4880000000002	0.0	20.56	21.76640657142802
129.56266666666687	0.0	20.56	21.848365071367656
129.63733333333354	0.0	20.56	22.01177254446717
129.71200000000022	0.0	20.56	22.199548703316076
129.7866666666669	0.0	20.56	22.36457049961079
129.86133333333356	0.0	20.56	22.480126870422225
129.93600000000023	0.0	20.56	22.538042199835736
130.0106666666669	0.0	20.56	22.540501681117714
130.08533333333358	0.0	20.56	22.492958639399994
130.16000000000025	0.0	20.56	22.407809010219495
130.23466666666693	0.0	20.56	22.316350750780632
130.3093333333336	0.0	20.56	22.274296816768235
130.38400000000027	0.0	20.56	22.346539564252094
130.45866666666694	0.0	20.56	22.56726777803368
130.53333333333362	0.0	20.56	22.90490151870482
130.6080000000003	0.0	20.56	23.277114269776156
130.68266666666696	0.0	20.56	23.602573913236192
130.75733333333363	0.0	20.56	23.835057354586954
130.8320000000003	0.0	20.56	23.96453421245309
130.90666666666698	0.0	20.56	24.000032162744592
130.98133333333365	0.0	20.56	23.948530047006365
131.05600000000032	0.0	20.56	23.80740375525672
131.130666666667	0.0	20.56	23.577161410573623
131.20533333333367	0.0	20.56	23.278340801495407
131.28000000000034	0.0	20.56	22.95820661278793
131.35466666666701	0.0	20.56	22.683499115100457
131.4293333333337	0.0	20.56	22.515348608562714
131.50400000000036	0.0	20.56	22.47642147459573
131.57866666666703	0.0	20.56	22.540690464674743
131.6533333333337	0.0	20.56	22.656241914042376
131.72800000000038	0.0	20.56	22.774644433245722
131.80266666666705	0.0	20.56	22.86414212887984
131.87733333333372	0.0	20.56	22.908624025127807
131.9520000000004	0.0	20.56	22.90215128955
132.02666666666707	0.0	20.56	22.845085189258675
132.10133333333374	0.0	20.56	22.74508847943616
132.1760000000004	0.0	20.56	22.623036691567858
132.2506666666671	0.0	20.56	22.520316363770092
132.32533333333376	0.0	20.56	22.498768364029495
132.40000000000043	0.0	20.56	22.61919298598701
132.4746666666671	0.0	20.56	22.899828619563113
132.54933333333378	0.0	20.56	23.291307769189356
132.62400000000045	0.0	20.56	23.699217206739675
132.69866666666712	0.0	20.56	24.033482048652555
132.7733333333338	0.0	20.56	24.24732799055706
132.84800000000047	0.0	20.56	24.346640309566766
132.92266666666714	0.0	20.56	24.361356745002112
132.9973333333338	0.0	20.56	24.29866392999284
133.0720000000005	0.0	20.56	24.13003683679702
133.14666666666716	0.0	20.56	23.82733078200056
133.22133333333383	0.0	20.56	23.40074442170939
133.2960000000005	0.0	20.56	22.904766620589456
133.37066666666718	0.0	20.56	22.41890987265549
133.44533333333385	0.0	20.56	22.017411039814025
133.52000000000052	0.0	20.56	21.739819298794526
133.5946666666672	0.0	20.56	21.581150281279967
133.66933333333387	0.0	20.56	21.507716269712564
133.74400000000054	0.0	20.56	21.480947622178647
133.8186666666672	0.0	20.56	21.471518248336338
133.89333333333389	0.0	20.56	21.461978983097808
133.96800000000056	0.0	20.56	21.44441541760547
134.04266666666723	0.0	20.56	21.418625205194136
134.1173333333339	0.0	20.56	21.393019550948047
134.19200000000058	0.0	20.56	21.387500981521196
134.26666666666725	0.0	20.56	21.434314672431395
134.34133333333392	0.0	20.56	21.570204908564303
134.4160000000006	0.0	20.56	21.816980644636978
134.49066666666727	0.0	20.56	22.161099554827246
134.56533333333394	0.0	20.56	22.550521775404974
134.6400000000006	0.0	20.56	22.91323443882263
134.71466666666728	0.0	20.56	23.1867673081507
134.78933333333396	0.0	20.56	23.3460321476354
134.86400000000063	0.0	20.56	23.40917716906339
134.9386666666673	0.0	20.56	23.405110233593874
135.01333333333397	0.0	20.56	23.33054023463462
135.08800000000065	0.0	20.56	23.152686929166347
135.16266666666732	0.0	20.56	22.85278388847102
135.237333333334	0.0	20.56	22.453670098890544
135.31200000000067	0.0	20.56	22.011200086530074
135.38666666666734	0.0	20.56	21.59015029942212
135.461333333334	0.0	20.56	21.242400024037877
135.53600000000068	0.0	20.56	20.99266422198376
135.61066666666736	0.0	20.56	20.83663237095425
135.68533333333403	0.0	20.56	20.75154044316803
135.7600000000007	0.0	20.56	20.710347275687344
135.83466666666737	0.0	20.56	20.69113411820076
135.90933333333405	0.0	20.56	20.680345010177582
135.98400000000072	0.0	20.56	20.672656588666467
136.0586666666674	0.0	20.56	20.670011607911416
136.13333333333406	0.0	20.56	20.680428743738243
136.20800000000074	0.0	20.56	20.71557880935681
136.2826666666674	0.0	20.56	20.786038898153546
136.35733333333408	0.0	20.56	20.895425063218575
136.43200000000076	0.0	20.56	21.03725343395394
136.50666666666743	0.0	20.56	21.196859615567142
136.5813333333341	0.0	20.56	21.355631669058287
136.65600000000077	0.0	20.56	21.49373602755304
136.73066666666745	0.0	20.56	21.593484261093455
136.80533333333412	0.0	20.56	21.648138817497475
136.8800000000008	0.0	20.56	21.6669107787208
136.95466666666746	0.0	20.56	21.661172471855703
137.02933333333414	0.0	20.56	21.628506899658728
137.1040000000008	0.0	20.56	21.562109727829952
137.17866666666748	0.0	20.56	21.470532917531592
137.25333333333415	0.0	20.56	21.379564198874903
137.32800000000083	0.0	20.56	21.321959344126107
137.4026666666675	0.0	20.56	21.328532115496017
137.47733333333417	0.0	20.56	21.41706573876511
137.55200000000085	0.0	20.56	21.578867052398017
137.62666666666752	0.0	20.56	21.77808962645025
137.7013333333342	0.0	20.56	21.971024236053637
137.77600000000086	0.0	20.56	22.126922288046224
137.85066666666754	0.0	20.56	22.23306863745828
137.9253333333342	0.0	20.56	22.288690360574876
138.00000000000088	0.0	20.56	22.29784336837217
126.8	10.0	20.56	24.265177477737744
126.87466666666667	10.0	20.56	24.530138958471813
126.94933333333334	10.0	20.56	24.47523428255691
127.02400000000002	10.0	20.56	24.090396538180514
127.09866666666669	10.0	20.56	23.617715107827216
127.17333333333336	10.0	20.56	23.23736123358272
127.24800000000003	10.0	20.56	22.94756378735452
127.3226666666667	10.0	20.56	22.722200449683726
127.39733333333338	10.0	20.56	22.55366038451524
127.47200000000005	10.0	20.56	22.459863380413672
127.54666666666672	10.0	20.56	22.482025347924914
127.6213333333334	10.0	20.56	22.65979300686473
127.69600000000007	10.0	20.56	22.978089119811433
127.77066666666674	10.0	20.56	23.34033956671515
127.84533333333341	10.0	20.56	23.62951923369456
127.92000000000009	10.0	20.56	23.787899052869452
127.99466666666676	10.0	20.56	23.81711150435117
128.06933333333342	10.0	20.56	23.728075693472828
128.1440000000001	10.0	20.56	23.523725794843358
128.21866666666676	10.0	20.56	23.22026565648236
128.29333333333344	10.0	20.56	22.858501655388807
128.3680000000001	10.0	20.56	22.50035179251685
128.44266666666678	10.0	20.56	22.222458097153424
128.51733333333345	10.0	20.56	22.095030057922138
128.59200000000013	10.0	20.56	22.14124425791094
128.6666666666668	10.0	20.56	22.311147494064656
128.74133333333347	10.0	20.56	22.509998099496766
128.81600000000014	10.0	20.56	22.66110837660051
128.89066666666682	10.0	20.56	22.74139308233975
128.9653333333335	10.0	20.56	22.765279308723137
129.04000000000016	10.0	20.56	22.745006232535566
129.11466666666684	10.0	20.56	22.668246072893982
129.1893333333335	10.0	20.56	22.51338009921136
129.26400000000018	10.0	20.56	22.28496996655095
129.33866666666685	10.0	20.56	22.03625778416025
129.41333333333353	10.0	20.56	21.854331371207156
129.4880000000002	10.0	20.56	21.809522300557568
129.56266666666687	10.0	20.56	21.908909956660114
129.63733333333354	10.0	20.56	22.099911710244132
129.71200000000022	10.0	20.56	22.312890547064885
129.7866666666669	10.0	20.56	22.49427834620853
129.86133333333356	10.0	20.56	22.6154045271061
129.93600000000023	10.0	20.56	22.671395669523232
130.0106666666669	10.0	20.56	22.67024814552874
130.08533333333358	10.0	20.56	22.615485401132535
130.16000000000025	10.0	20.56	22.51204184503154
130.23466666666693	10.0	20.56	22.390442757258317
130.3093333333336	10.0	20.56	22.315787826734155
130.38400000000027	10.0	20.56	22.369802669403157
130.45866666666694	10.0	20.56	22.599732375140924
130.53333333333362	10.0	20.56	22.96779005445711
130.6080000000003	10.0	20.56	23.372814196584983
130.68266666666696	10.0	20.56	23.72137069816357
130.75733333333363	10.0	20.56	23.96444284633816
130.8320000000003	10.0	20.56	24.094466884231654
130.90666666666698	10.0	20.56	24.127885213677864
130.98133333333365	10.0	20.56	24.07538951294927
131.05600000000032	10.0	20.56	23.928683243428345
131.130666666667	10.0	20.56	23.683761327139912
131.20533333333367	10.0	20.56	23.362779032640397
131.28000000000034	10.0	20.56	23.017278553293142
131.35466666666701	10.0	20.56	22.722335149794645
131.4293333333337	10.0	20.56	22.550283949287557
131.50400000000036	10.0	20.56	22.527139246761546
131.57866666666703	10.0	20.56	22.617714599626968
131.6533333333337	10.0	20.56	22.758385123361847
131.72800000000038	10.0	20.56	22.895178845632163
131.80266666666705	10.0	20.56	22.99583098747468
131.87733333333372	10.0	20.56	23.045208157650517
131.9520000000004	10.0	20.56	23.038311774364285
132.02666666666707	10.0	20.56	22.974932003334036
132.10133333333374	10.0	20.56	22.860500018901853
132.1760000000004	10.0	20.56	22.712855503904496
132.2506666666671	10.0	20.56	22.57128020464428
132.32533333333376	10.0	20.56	22.50132043121249
132.40000000000043	10.0	20.56	22.57545379353503
132.4746666666671	10.0	20.56	22.824447875906245
132.54933333333378	10.0	20.56	23.20522884931899
132.62400000000045	10.0	20.56	23.624676970157253
132.69866666666712	10.0	20.56	23.987303341091515
132.7733333333338	10.0	20.56	24.23059176276004
132.84800000000047	10.0	20.56	24.34609209629997
132.92266666666714	10.0	20.56	24.36325197437216
132.9973333333338	10.0	20.56	24.290603131736862
133.0720000000005	10.0	20.56	24.0967493633644
133.14666666666716	10.0	20.56	23.76149307000736
133.22133333333383	10.0	20.56	23.310925433682893
133.2960000000005	10.0	20.56	22.80739349692346
133.37066666666718	10.0	20.56	22.33013916391566
133.44533333333385	10.0	20.56	21.952403389309275
133.52000000000052	10.0	20.56	21.710704858646906
133.5946666666672	10.0	20.56	21.591800751447387
133.66933333333387	10.0	20.56	21.55277965919424
133.74400000000054	10.0	20.56	21.55046708312297
133.8186666666672	10.0	20.56	21.555873295876328
133.89333333333389	10.0	20.56	21.5537861516616
133.96800000000056	10.0	20.56	21.53753857319162
134.04266666666723	10.0	20.56	21.505809689321776
134.1173333333339	10.0	20.56	21.463870328730366
134.19200000000058	10.0	20.56	21.42850741820855
134.26666666666725	10.0	20.56	21.43213173952243
134.34133333333392	10.0	20.56	21.517134123524464
134.4160000000006	10.0	20.56	21.714617905547534
134.49066666666727	10.0	20.56	22.020295883573617
134.56533333333394	10.0	20.56	22.391166420168535
134.6400000000006	10.0	20.56	22.762935091784893
134.71466666666728	10.0	20.56	23.07011380164397
134.78933333333396	10.0	20.56	23.268204739226135
134.86400000000063	10.0	20.56	23.354119932936417
134.9386666666673	10.0	20.56	23.348362638829396
135.01333333333397	10.0	20.56	23.247834965415432
135.08800000000065	10.0	20.56	23.02926115084821
135.16266666666732	10.0	20.56	22.69529552234826
135.237333333334	10.0	20.56	22.28555877214003
135.31200000000067	10.0	20.56	21.855928655507643
135.38666666666734	10.0	20.56	21.46269984006105
135.461333333334	10.0	20.56	21.151043276486963
135.53600000000068	10.0	20.56	20.941320332253763
135.61066666666736	10.0	20.56	20.82435066885839
135.68533333333403	10.0	20.56	20.772428221481512
135.7600000000007	10.0	20.56	20.755564679471682
135.83466666666737	10.0	20.56	20.75126955642451
135.90933333333405	10.0	20.56	20.746653046722987
135.98400000000072	10.0	20.56	20.737217152002383
136.0586666666674	10.0	20.56	20.72573427861091
136.13333333333406	10.0	20.56	20.72181445190195
136.20800000000074	10.0	20.56	20.740303613637302
136.2826666666674	10.0	20.56	20.795905453317566
136.35733333333408	10.0	20.56	20.894836143379155
136.43200000000076	10.0	20.56	21.030005373763238
136.50666666666743	10.0	20.56	21.18473218677468
136.5813333333341	10.0	20.56	21.3403953764806
136.65600000000077	10.0	20.56	21.479738583905814
136.73066666666745	10.0	20.56	21.585758627688982
136.80533333333412	10.0	20.56	21.646808966476087
136.8800000000008	10.0	20.56	21.667997585313568
136.95466666666746	10.0	20.56	21.66130664760324
137.02933333333414	10.0	20.56	21.623757683753535
137.1040000000008	10.0	20.56	21.550086903751303
137.17866666666748	10.0	20.56	21.454418144803764
137.25333333333415	10.0	20.56	21.364707508412053
137.32800000000083	10.0	20.56	21.31279543836805
137.4026666666675	10.0	20.56	21.33054345720535
137.47733333333417	10.0	20.56	21.437985561229823
137.55200000000085	10.0	20.56	21.62418914575326
137.62666666666752	10.0	20.56	21.845564457822736
137.7013333333342	10.0	20.56	22.052571355398157
137.77600000000086	10.0	20.56	22.2150373941508
137.85066666666754	10.0	20.56	22.323186155772834
137.9253333333342	10.0	20.56	22.377769001710615
138.00000000000088	10.0	20.56	22.38362111810128
126.8	20.0	20.56	24.04391136347267
126.87466666666667	20.0	20.56	24.37764717172706
126.94933333333334	20.0	20.56	24.28229315925556
127.02400000000002	20.0	20.56	23.81209626056887
127.09866666666669	20.0	20.56	23.374760084660444
127.17333333333336	20.0	20.56	23.05640427809795
127.24800000000003	20.0	20.56	22.81561405324099
127.3226666666667	20.0	20.56	22.62455479266925
127.39733333333338	20.0	20.56	22.478578450563813
127.47200000000005	20.0	20.56	22.402060042187866
127.54666666666672	20.0	20.56	22.44725526446899
127.6213333333334	20.0	20.56	22.66429779264188
127.69600000000007	20.0	20.56	23.03419769858635
127.77066666666674	20.0	20.56	23.441408416770678
127.84533333333341	20.0	20.56	23.754961069854957
127.92000000000009	20.0	20.56	23.91769696913114
127.99466666666676	20.0	20.56	23.942990753183164
128.06933333333342	20.0	20.56	23.845842052846095
128.1440000000001	20.0	20.56	23.623925211047816
128.21866666666676	20.0	20.56	23.296933810841693
128.29333333333344	20.0	20.56	22.909911327040287
128.3680000000001	20.0	20.56	22.525256604583237
128.44266666666678	20.0	20.56	22.225293482494887
128.51733333333345	20.0	20.56	22.091889549260873
128.59200000000013	20.0	20.56	22.154131948566892
128.6666666666668	20.0	20.56	22.352988338339863
128.74133333333347	20.0	20.56	22.575128238029308
128.81600000000014	20.0	20.56	22.73022317774645
128.89066666666682	20.0	20.56	22.798672366888628
128.9653333333335	20.0	20.56	22.813819463449967
129.04000000000016	20.0	20.56	22.801494004408116
129.11466666666684	20.0	20.56	22.738453039520998
129.1893333333335	20.0	20.56	22.58431131968737
129.26400000000018	20.0	20.56	22.33795421341263
129.33866666666685	20.0	20.56	22.062311727687334
129.41333333333353	20.0	20.56	21.86063247266039
129.4880000000002	20.0	20.56	21.81479081841726
129.56266666666687	20.0	20.56	21.929780876811805
129.63733333333354	20.0	20.56	22.141894849888814
129.71200000000022	20.0	20.56	22.374587356904183
129.7866666666669	20.0	20.56	22.572262158545165
129.86133333333356	20.0	20.56	22.700351254673524
129.93600000000023	20.0	20.56	22.75275699462499
130.0106666666669	20.0	20.56	22.750315040770545
130.08533333333358	20.0	20.56	22.693527401857743
130.16000000000025	20.0	20.56	22.57335791171787
130.23466666666693	20.0	20.56	22.423718733014383
130.3093333333336	20.0	20.56	22.319470241215207
130.38400000000027	20.0	20.56	22.352808705812098
130.45866666666694	20.0	20.56	22.580275311522122
130.53333333333362	20.0	20.56	22.959600302745155
130.6080000000003	20.0	20.56	23.37799044359679
130.68266666666696	20.0	20.56	23.740340805005808
130.75733333333363	20.0	20.56	23.998730445120703
130.8320000000003	20.0	20.56	24.138841265333177
130.90666666666698	20.0	20.56	24.17397309720057
130.98133333333365	20.0	20.56	24.116251159018553
131.05600000000032	20.0	20.56	23.955622823682745
131.130666666667	20.0	20.56	23.69460078062911
131.20533333333367	20.0	20.56	23.36245715846041
131.28000000000034	20.0	20.56	23.009498322119583
131.35466666666701	20.0	20.56	22.711144827561117
131.4293333333337	20.0	20.56	22.546348959007425
131.50400000000036	20.0	20.56	22.54306173436717
131.57866666666703	20.0	20.56	22.657572099389952
131.6533333333337	20.0	20.56	22.81776870645134
131.72800000000038	20.0	20.56	22.968651874130348
131.80266666666705	20.0	20.56	23.079457084702707
131.87733333333372	20.0	20.56	23.1341278303876
131.9520000000004	20.0	20.56	23.126896797992146
132.02666666666707	20.0	20.56	23.057400177692458
132.10133333333374	20.0	20.56	22.931274261242184
132.1760000000004	20.0	20.56	22.764684340508946
132.2506666666671	20.0	20.56	22.59117491731901
132.32533333333376	20.0	20.56	22.473082270915462
132.40000000000043	20.0	20.56	22.488193186282725
132.4746666666671	20.0	20.56	22.677186517537187
132.54933333333378	20.0	20.56	23.00690233205059
132.62400000000045	20.0	20.56	23.397960713839577
132.69866666666712	20.0	20.56	23.769376998791856
132.7733333333338	20.0	20.56	24.05404511507813
132.84800000000047	20.0	20.56	24.210805705416757
132.92266666666714	20.0	20.56	24.236275437386595
132.9973333333338	20.0	20.56	24.1324118037377
133.0720000000005	20.0	20.56	23.89060349575921
133.14666666666716	20.0	20.56	23.527164128232013
133.22133333333383	20.0	20.56	23.084627202147185
133.2960000000005	20.0	20.56	22.615582573017303
133.37066666666718	20.0	20.56	22.184927725419772
133.44533333333385	20.0	20.56	21.859358702613378
133.52000000000052	20.0	20.56	21.67129991882026
133.5946666666672	20.0	20.56	21.599905140052275
133.66933333333387	20.0	20.56	21.59546205962438
133.74400000000054	20.0	20.56	21.613880067953467
133.8186666666672	20.0	20.56	21.629984562330982
133.89333333333389	20.0	20.56	21.633220749607418
133.96800000000056	20.0	20.56	21.619282119619026
134.04266666666723	20.0	20.56	21.585450894244694
134.1173333333339	20.0	20.56	21.53227021463783
134.19200000000058	20.0	20.56	21.470550504410955
134.26666666666725	20.0	20.56	21.42905036602965
134.34133333333392	20.0	20.56	21.452215143335597
134.4160000000006	20.0	20.56	21.577993799017168
134.49066666666727	20.0	20.56	21.809723170927818
134.56533333333394	20.0	20.56	22.114086674689084
134.6400000000006	20.0	20.56	22.443283230892927
134.71466666666728	20.0	20.56	22.748755284604943
134.78933333333396	20.0	20.56	22.981147627305532
134.86400000000063	20.0	20.56	23.100764844419963
134.9386666666673	20.0	20.56	23.09178612389228
135.01333333333397	20.0	20.56	22.953564955574087
135.08800000000065	20.0	20.56	22.701067850589894
135.16266666666732	20.0	20.56	22.369948075041812
135.237333333334	20.0	20.56	22.0000456080138
135.31200000000067	20.0	20.56	21.628634364406626
135.38666666666734	20.0	20.56	21.29670038452315
135.461333333334	20.0	20.56	21.04356182708972
135.53600000000068	20.0	20.56	20.887623461833098
135.61066666666736	20.0	20.56	20.816628685942238
135.68533333333403	20.0	20.56	20.79974483141037
135.7600000000007	20.0	20.56	20.806288657959314
135.83466666666737	20.0	20.56	20.81527756535556
135.90933333333405	20.0	20.56	20.815750744999338
135.98400000000072	20.0	20.56	20.804278301940762
136.0586666666674	20.0	20.56	20.783776625626228
136.13333333333406	20.0	20.56	20.764262045853876
136.20800000000074	20.0	20.56	20.763027317612426
136.2826666666674	20.0	20.56	20.799457073004906
136.35733333333408	20.0	20.56	20.883482042784745
136.43200000000076	20.0	20.56	21.007394309829888
136.50666666666743	20.0	20.56	21.151109512175672
136.5813333333341	20.0	20.56	21.29461803021983
136.65600000000077	20.0	20.56	21.42440833745215
136.73066666666745	20.0	20.56	21.530510249946587
136.80533333333412	20.0	20.56	21.601769936465704
136.8800000000008	20.0	20.56	21.631488250459437
136.95466666666746	20.0	20.56	21.621871339459606
137.02933333333414	20.0	20.56	21.574205173466098
137.1040000000008	20.0	20.56	21.495978343926005
137.17866666666748	20.0	20.56	21.40596817372175
137.25333333333415	20.0	20.56	21.326599016230276
137.32800000000083	20.0	20.56	21.285118965344992
137.4026666666675	20.0	20.56	21.31423660810056
137.47733333333417	20.0	20.56	21.437013152688184
137.55200000000085	20.0	20.56	21.641161941233527
137.62666666666752	20.0	20.56	21.87649320567958
137.7013333333342	20.0	20.56	22.090086443225612
137.77600000000086	20.0	20.56	22.25578971910554
137.85066666666754	20.0	20.56	22.368003502873478
137.9253333333342	20.0	20.56	22.425290974347558
138.00000000000088	20.0	20.56	22.429316257720046
126.8	30.0	20.56	23.285102341155245
126.87466666666667	30.0	20.56	23.458548762426883
126.94933333333334	30.0	20.56	23.39733224068108
127.02400000000002	30.0	20.56	23.19434161145308
127.09866666666669	30.0	20.56	22.980917713148866
127.17333333333336	30.0	20.56	22.793257911656728
127.24800000000003	30.0	20.56	22.633979499492604
127.3226666666667	30.0	20.56	22.49315504861476
127.39733333333338	30.0	20.56	22.376198290759277
127.47200000000005	30.0	20.56	22.316179028968946
127.54666666666672	30.0	20.56	22.37413845176128
127.6213333333334	30.0	20.56	22.605598041304102
127.69600000000007	30.0	20.56	22.98770217907245
127.77066666666674	30.0	20.56	23.40375684435446
127.84533333333341	30.0	20.56	23.733873164565114
127.92000000000009	30.0	20.56	23.915165240132758
127.99466666666676	30.0	20.56	23.942291734881717
128.06933333333342	30.0	20.56	23.827249567257642
128.1440000000001	30.0	20.56	23.58411180708177
128.21866666666676	30.0	20.56	23.250836919102795
128.29333333333344	30.0	20.56	22.8664866259651
128.3680000000001	30.0	20.56	22.480963086862737
128.44266666666678	30.0	20.56	22.175276766386023
128.51733333333345	30.0	20.56	22.038935188495454
128.59200000000013	30.0	20.56	22.107754387954802
128.6666666666668	30.0	20.56	22.32441300961885
128.74133333333347	30.0	20.56	22.571341768578684
128.81600000000014	30.0	20.56	22.74447141974854
128.89066666666682	30.0	20.56	22.813139064059314
128.9653333333335	30.0	20.56	22.82219325543712
129.04000000000016	30.0	20.56	22.815402232246424
129.11466666666684	30.0	20.56	22.754014845274273
129.1893333333335	30.0	20.56	22.584444708880508
129.26400000000018	30.0	20.56	22.315330363604502
129.33866666666685	30.0	20.56	22.02380444314589
129.41333333333353	30.0	20.56	21.817791974359434
129.4880000000002	30.0	20.56	21.77795014397758
129.56266666666687	30.0	20.56	21.903448983268756
129.63733333333354	30.0	20.56	22.12361813605509
129.71200000000022	30.0	20.56	22.364236203281
129.7866666666669	30.0	20.56	22.580105085670848
129.86133333333356	30.0	20.56	22.730115894838644
129.93600000000023	30.0	20.56	22.783724079821223
130.0106666666669	30.0	20.56	22.78149354030183
130.08533333333358	30.0	20.56	22.71902813510671
130.16000000000025	30.0	20.56	22.57162481832117
130.23466666666693	30.0	20.56	22.397938349877894
130.3093333333336	30.0	20.56	22.27678485687969
130.38400000000027	30.0	20.56	22.294737191233057
130.45866666666694	30.0	20.56	22.509243866735986
130.53333333333362	30.0	20.56	22.87523299340174
130.6080000000003	30.0	20.56	23.276090564349012
130.68266666666696	30.0	20.56	23.626575899556634
130.75733333333363	30.0	20.56	23.894602866118667
130.8320000000003	30.0	20.56	24.05955631259988
130.90666666666698	30.0	20.56	24.105025447582154
130.98133333333365	30.0	20.56	24.030571166466707
131.05600000000032	30.0	20.56	23.8464665019997
131.130666666667	30.0	20.56	23.581698404195215
131.20533333333367	30.0	20.56	23.26459793719961
131.28000000000034	30.0	20.56	22.930808364609923
131.35466666666701	30.0	20.56	22.6493707439644
131.4293333333337	30.0	20.56	22.502802417440982
131.50400000000036	30.0	20.56	22.52044177948609
131.57866666666703	30.0	20.56	22.652319640687015
131.6533333333337	30.0	20.56	22.822052398940567
131.72800000000038	30.0	20.56	22.979206095435504
131.80266666666705	30.0	20.56	23.099448821020093
131.87733333333372	30.0	20.56	23.162574385247805
131.9520000000004	30.0	20.56	23.154359352292147
132.02666666666707	30.0	20.56	23.075625756163568
132.10133333333374	30.0	20.56	22.940570119300396
132.1760000000004	30.0	20.56	22.765080033595435
132.2506666666671	30.0	20.56	22.57145520761415
132.32533333333376	30.0	20.56	22.412677463756513
132.40000000000043	30.0	20.56	22.365664471968007
132.4746666666671	30.0	20.56	22.47542224406839
132.54933333333378	30.0	20.56	22.713819003768034
132.62400000000045	30.0	20.56	23.01127632405032
132.69866666666712	30.0	20.56	23.307653679771303
132.7733333333338	30.0	20.56	23.560064181915305
132.84800000000047	30.0	20.56	23.723126740757284
132.92266666666714	30.0	20.56	23.752227993265702
132.9973333333338	30.0	20.56	23.636020924646058
133.0720000000005	30.0	20.56	23.404483544854834
133.14666666666716	30.0	20.56	23.09654525295163
133.22133333333383	30.0	20.56	22.7377832923649
133.2960000000005	30.0	20.56	22.357012183459005
133.37066666666718	30.0	20.56	22.00777575598782
133.44533333333385	30.0	20.56	21.755516553407997
133.52000000000052	30.0	20.56	21.63125744010152
133.5946666666672	30.0	20.56	21.608576858952322
133.66933333333387	30.0	20.56	21.634264439256665
133.74400000000054	30.0	20.56	21.66698386109689
133.8186666666672	30.0	20.56	21.68814273719685
133.89333333333389	30.0	20.56	21.693774221128088
133.96800000000056	30.0	20.56	21.682930267027313
134.04266666666723	30.0	20.56	21.651097149121338
134.1173333333339	30.0	20.56	21.59286413022517
134.19200000000058	30.0	20.56	21.51120296091947
134.26666666666725	30.0	20.56	21.42826417407718
134.34133333333392	30.0	20.56	21.3871866546822
134.4160000000006	30.0	20.56	21.430079135005947
134.49066666666727	30.0	20.56	21.564226244046548
134.56533333333394	30.0	20.56	21.75793262293499
134.6400000000006	30.0	20.56	21.968940934666808
134.71466666666728	30.0	20.56	22.16536038367922
134.78933333333396	30.0	20.56	22.32210105471107
134.86400000000063	30.0	20.56	22.409581300961033
134.9386666666673	30.0	20.56	22.401473221676618
135.01333333333397	30.0	20.56	22.298161103304235
135.08800000000065	30.0	20.56	22.123476251326366
135.16266666666732	30.0	20.56	21.899403368623986
135.237333333334	30.0	20.56	21.64072118362367
135.31200000000067	30.0	20.56	21.368794338467602
135.38666666666734	30.0	20.56	21.12086292891916
135.461333333334	30.0	20.56	20.93878264608407
135.53600000000068	30.0	20.56	20.842501892033365
135.61066666666736	30.0	20.56	20.817983773784167
135.68533333333403	30.0	20.56	20.833040707438283
135.7600000000007	30.0	20.56	20.8587494370625
135.83466666666737	30.0	20.56	20.877633417183834
135.90933333333405	30.0	20.56	20.881635029097552
135.98400000000072	30.0	20.56	20.868459450986688
136.0586666666674	30.0	20.56	20.84041531634827
136.13333333333406	30.0	20.56	20.80638589160468
136.20800000000074	30.0	20.56	20.784584820295606
136.2826666666674	30.0	20.56	20.79916973058445
136.35733333333408	30.0	20.56	20.86554223265538
136.43200000000076	30.0	20.56	20.9765043846809
136.50666666666743	30.0	20.56	21.107738810225438
136.5813333333341	30.0	20.56	21.23520659083238
136.65600000000077	30.0	20.56	21.34481037778521
136.73066666666745	30.0	20.56	21.431049033986167
136.80533333333412	30.0	20.56	21.490922515771995
136.8800000000008	30.0	20.56	21.518963423742576
136.95466666666746	30.0	20.56	21.510716751027484
137.02933333333414	30.0	20.56	21.470555398763764
137.1040000000008	30.0	20.56	21.409298481752412
137.17866666666748	30.0	20.56	21.33871177028195
137.25333333333415	30.0	20.56	21.274696413751524
137.32800000000083	30.0	20.56	21.243373187944236
137.4026666666675	30.0	20.56	21.280111896094745
137.47733333333417	30.0	20.56	21.411473646364946
137.55200000000085	30.0	20.56	21.624648560814602
137.62666666666752	30.0	20.56	21.863978476158785
137.7013333333342	30.0	20.56	22.07393370777062
137.77600000000086	30.0	20.56	22.234458701379978
137.85066666666754	30.0	20.56	22.349460590026414
137.9253333333342	30.0	20.56	22.415108284976835
138.00000000000088	30.0	20.56	22.418896182741214
126.8	40.0	20.56	22.457514484843944
126.87466666666667	40.0	20.56	22.408293331483904
126.94933333333334	40.0	20.56	22.488210202133978
127.02400000000002	40.0	20.56	22.57578682994546
127.09866666666669	40.0	20.56	22.564798160178437
127.17333333333336	40.0	20.56	22.513243439342613
127.24800000000003	40.0	20.56	22.439313499102983
127.3226666666667	40.0	20.56	22.347754522694814
127.39733333333338	40.0	20.56	22.25653043983758
127.47200000000005	40.0	20.56	22.207006058430608
127.54666666666672	40.0	20.56	22.26448152217144
127.6213333333334	40.0	20.56	22.48264501352079
127.69600000000007	40.0	20.56	22.830152946003945
127.77066666666674	40.0	20.56	23.192502103532803
127.84533333333341	40.0	20.56	23.48155103242903
127.92000000000009	40.0	20.56	23.660565932857544
127.99466666666676	40.0	20.56	23.691186935349606
128.06933333333342	40.0	20.56	23.571900662870434
128.1440000000001	40.0	20.56	23.35429142801481